<?xml version="1.0" encoding="UTF-8"?>

<!-- generated on 06/13/19 13:10:36 by Eclipse SUMO Version 1.2.0
<configuration xmlns:xsi="http://www.w3.org/2001/XMLSchema-instance" xsi:noNamespaceSchemaLocation="http://sumo.dlr.de/xsd/sumoConfiguration.xsd">

    <input>
        <net-file value="kirchheim.net.xml"/>
        <route-files value="kirchheim.rou.xml"/>
    </input>

    <output>
        <netstate-dump value="rawdump.xml"/>
        <fcd-output value="fcdoutput.xml"/>
        <tripinfo-output value="tripinfooutput.xml"/>
        <vehroute-output value="vehrouteoutput.xml"/>
        <stop-output value="stopoutput.xml"/>
    </output>

    <time>
        <begin value="0"/>
        <end value="10000"/>
    </time>

</configuration>
-->

<tripinfos xmlns:xsi="http://www.w3.org/2001/XMLSchema-instance" xsi:noNamespaceSchemaLocation="http://sumo.dlr.de/xsd/tripinfo_file.xsd">
    <tripinfo id="49" depart="50.00" departLane="180259843#2_0" departPos="0.20" departSpeed="0.00" departDelay="1.00" arrival="118.00" arrivalLane="-362226760#2_0" arrivalPos="11.16" arrivalSpeed="6.85" duration="68.00" routeLength="488.01" waitingTime="0.00" waitingCount="0" stopTime="0.00" timeLoss="9.47" rerouteNo="0" devices="vehroute_49 tripinfo_49 fcd_49" vType="DEFAULT_VEHTYPE" speedFactor="0.85" vaporized=""/>
    <tripinfo id="38" depart="41.00" departLane="-157147524#3_0" departPos="0.20" departSpeed="0.00" departDelay="3.00" arrival="121.00" arrivalLane="-22323598#6_0" arrivalPos="37.61" arrivalSpeed="14.91" duration="80.00" routeLength="793.66" waitingTime="0.00" waitingCount="0" stopTime="0.00" timeLoss="12.80" rerouteNo="0" devices="vehroute_38 tripinfo_38 fcd_38" vType="DEFAULT_VEHTYPE" speedFactor="1.10" vaporized=""/>
    <tripinfo id="7" depart="7.00" departLane="157150674#9_0" departPos="5.10" departSpeed="0.00" departDelay="0.00" arrival="125.00" arrivalLane="149102061#11_0" arrivalPos="86.15" arrivalSpeed="11.93" duration="118.00" routeLength="1259.37" waitingTime="0.00" waitingCount="0" stopTime="0.00" timeLoss="13.07" rerouteNo="0" devices="vehroute_7 tripinfo_7 fcd_7" vType="DEFAULT_VEHTYPE" speedFactor="0.89" vaporized=""/>
    <tripinfo id="20" depart="20.00" departLane="22325218#0_0" departPos="0.20" departSpeed="0.00" departDelay="0.00" arrival="132.00" arrivalLane="171610162#1_0" arrivalPos="125.10" arrivalSpeed="13.92" duration="112.00" routeLength="1128.76" waitingTime="0.00" waitingCount="0" stopTime="0.00" timeLoss="20.37" rerouteNo="0" devices="vehroute_20 tripinfo_20 fcd_20" vType="DEFAULT_VEHTYPE" speedFactor="1.02" vaporized=""/>
    <tripinfo id="100" depart="100.00" departLane="22325217_0" departPos="5.10" departSpeed="0.00" departDelay="0.00" arrival="143.00" arrivalLane="345311195#3_0" arrivalPos="11.20" arrivalSpeed="14.47" duration="43.00" routeLength="421.16" waitingTime="0.00" waitingCount="0" stopTime="0.00" timeLoss="12.67" rerouteNo="0" devices="vehroute_100 tripinfo_100 fcd_100" vType="DEFAULT_VEHTYPE" speedFactor="1.12" vaporized=""/>
    <tripinfo id="11" depart="11.00" departLane="172675260_0" departPos="5.10" departSpeed="0.00" departDelay="0.00" arrival="149.00" arrivalLane="345235527#3_0" arrivalPos="456.06" arrivalSpeed="19.76" duration="138.00" routeLength="2243.99" waitingTime="0.00" waitingCount="0" stopTime="0.00" timeLoss="13.65" rerouteNo="0" devices="vehroute_11 tripinfo_11 fcd_11" vType="DEFAULT_VEHTYPE" speedFactor="1.03" vaporized=""/>
    <tripinfo id="26" depart="26.00" departLane="262266428_0" departPos="5.10" departSpeed="0.00" departDelay="0.00" arrival="154.00" arrivalLane="-171610162#2_0" arrivalPos="113.67" arrivalSpeed="12.65" duration="128.00" routeLength="1017.81" waitingTime="0.00" waitingCount="0" stopTime="0.00" timeLoss="16.51" rerouteNo="0" devices="vehroute_26 tripinfo_26 fcd_26" vType="DEFAULT_VEHTYPE" speedFactor="0.92" vaporized=""/>
    <tripinfo id="81" depart="81.00" departLane="-170948390#2_0" departPos="5.10" departSpeed="0.00" departDelay="0.00" arrival="159.00" arrivalLane="-22328848#5_0" arrivalPos="51.46" arrivalSpeed="13.16" duration="78.00" routeLength="812.41" waitingTime="0.00" waitingCount="0" stopTime="0.00" timeLoss="17.49" rerouteNo="0" devices="vehroute_81 tripinfo_81 fcd_81" vType="DEFAULT_VEHTYPE" speedFactor="1.03" vaporized=""/>
    <tripinfo id="87" depart="87.00" departLane="-157148579#5_0" departPos="0.20" departSpeed="0.00" departDelay="0.00" arrival="166.00" arrivalLane="22327902#1_0" arrivalPos="14.43" arrivalSpeed="7.61" duration="79.00" routeLength="688.80" waitingTime="0.00" waitingCount="0" stopTime="0.00" timeLoss="14.63" rerouteNo="0" devices="vehroute_87 tripinfo_87 fcd_87" vType="DEFAULT_VEHTYPE" speedFactor="1.00" vaporized=""/>
    <tripinfo id="109" depart="109.00" departLane="180259843#0_0" departPos="5.10" departSpeed="0.00" departDelay="0.00" arrival="167.00" arrivalLane="157150656#12_0" arrivalPos="0.46" arrivalSpeed="8.02" duration="58.00" routeLength="393.25" waitingTime="2.00" waitingCount="1" stopTime="0.00" timeLoss="16.31" rerouteNo="0" devices="vehroute_109 tripinfo_109 fcd_109" vType="DEFAULT_VEHTYPE" speedFactor="1.01" vaporized=""/>
    <tripinfo id="62" depart="62.00" departLane="-34340977#1_0" departPos="5.10" departSpeed="0.00" departDelay="0.00" arrival="169.00" arrivalLane="5107170#0_0" arrivalPos="41.14" arrivalSpeed="13.28" duration="107.00" routeLength="1112.95" waitingTime="3.00" waitingCount="1" stopTime="0.00" timeLoss="21.37" rerouteNo="0" devices="vehroute_62 tripinfo_62 fcd_62" vType="DEFAULT_VEHTYPE" speedFactor="1.02" vaporized=""/>
    <tripinfo id="33" depart="33.00" departLane="-4776819#0_0" departPos="5.10" departSpeed="0.00" departDelay="0.00" arrival="172.00" arrivalLane="157150660#12_0" arrivalPos="2.89" arrivalSpeed="9.20" duration="139.00" routeLength="1276.59" waitingTime="0.00" waitingCount="0" stopTime="0.00" timeLoss="17.60" rerouteNo="0" devices="vehroute_33 tripinfo_33 fcd_33" vType="DEFAULT_VEHTYPE" speedFactor="1.17" vaporized=""/>
    <tripinfo id="19" depart="19.00" departLane="326418301_0" departPos="5.10" departSpeed="0.00" departDelay="0.00" arrival="183.00" arrivalLane="486563015#2_0" arrivalPos="8.03" arrivalSpeed="7.15" duration="164.00" routeLength="2014.70" waitingTime="43.00" waitingCount="1" stopTime="0.00" timeLoss="69.18" rerouteNo="0" devices="vehroute_19 tripinfo_19 fcd_19" vType="DEFAULT_VEHTYPE" speedFactor="1.16" vaporized=""/>
    <tripinfo id="27" depart="27.00" departLane="154182822#3_0" departPos="5.10" departSpeed="0.00" departDelay="0.00" arrival="186.00" arrivalLane="38331801#0_0" arrivalPos="48.18" arrivalSpeed="6.64" duration="159.00" routeLength="2079.02" waitingTime="0.00" waitingCount="0" stopTime="0.00" timeLoss="28.19" rerouteNo="0" devices="vehroute_27 tripinfo_27 fcd_27" vType="DEFAULT_VEHTYPE" speedFactor="0.95" vaporized=""/>
    <tripinfo id="30" depart="30.00" departLane="-157148586#1_0" departPos="5.10" departSpeed="0.00" departDelay="0.00" arrival="186.00" arrivalLane="-41213181#1_0" arrivalPos="7.99" arrivalSpeed="5.62" duration="156.00" routeLength="1448.60" waitingTime="0.00" waitingCount="0" stopTime="0.00" timeLoss="23.52" rerouteNo="0" devices="vehroute_30 tripinfo_30 fcd_30" vType="DEFAULT_VEHTYPE" speedFactor="1.18" vaporized=""/>
    <tripinfo id="68" depart="68.00" departLane="22327902#4_0" departPos="5.10" departSpeed="0.00" departDelay="0.00" arrival="186.00" arrivalLane="196193009_0" arrivalPos="259.11" arrivalSpeed="19.42" duration="118.00" routeLength="1400.25" waitingTime="0.00" waitingCount="0" stopTime="0.00" timeLoss="26.12" rerouteNo="0" devices="vehroute_68 tripinfo_68 fcd_68" vType="DEFAULT_VEHTYPE" speedFactor="1.04" vaporized=""/>
    <tripinfo id="117" depart="117.00" departLane="377329807#1_0" departPos="5.10" departSpeed="0.00" departDelay="0.00" arrival="190.00" arrivalLane="-22328531_0" arrivalPos="42.37" arrivalSpeed="14.21" duration="73.00" routeLength="727.53" waitingTime="0.00" waitingCount="0" stopTime="0.00" timeLoss="16.71" rerouteNo="0" devices="vehroute_117 tripinfo_117 fcd_117" vType="DEFAULT_VEHTYPE" speedFactor="1.10" vaporized=""/>
    <tripinfo id="24" depart="24.00" departLane="-362226760#6_0" departPos="5.10" departSpeed="0.00" departDelay="0.00" arrival="192.00" arrivalLane="35165735_0" arrivalPos="36.32" arrivalSpeed="10.94" duration="168.00" routeLength="1158.49" waitingTime="0.00" waitingCount="0" stopTime="0.00" timeLoss="17.90" rerouteNo="0" devices="vehroute_24 tripinfo_24 fcd_24" vType="DEFAULT_VEHTYPE" speedFactor="0.83" vaporized=""/>
    <tripinfo id="149" depart="149.00" departLane="157150660#0_0" departPos="5.10" departSpeed="0.00" departDelay="0.00" arrival="193.00" arrivalLane="157150656#6_0" arrivalPos="13.24" arrivalSpeed="8.27" duration="44.00" routeLength="319.69" waitingTime="0.00" waitingCount="0" stopTime="0.00" timeLoss="10.03" rerouteNo="0" devices="vehroute_149 tripinfo_149 fcd_149" vType="DEFAULT_VEHTYPE" speedFactor="1.14" vaporized=""/>
    <tripinfo id="13" depart="13.00" departLane="-421617196_0" departPos="5.10" departSpeed="0.00" departDelay="0.00" arrival="195.00" arrivalLane="-216226409_0" arrivalPos="229.81" arrivalSpeed="15.48" duration="182.00" routeLength="3063.44" waitingTime="0.00" waitingCount="0" stopTime="0.00" timeLoss="31.15" rerouteNo="0" devices="vehroute_13 tripinfo_13 fcd_13" vType="DEFAULT_VEHTYPE" speedFactor="1.12" vaporized=""/>
    <tripinfo id="95" depart="95.00" departLane="4734923#0_0" departPos="5.10" departSpeed="0.00" departDelay="0.00" arrival="195.00" arrivalLane="144116760#0_0" arrivalPos="9.08" arrivalSpeed="14.46" duration="100.00" routeLength="1273.00" waitingTime="0.00" waitingCount="0" stopTime="0.00" timeLoss="11.32" rerouteNo="0" devices="vehroute_95 tripinfo_95 fcd_95" vType="DEFAULT_VEHTYPE" speedFactor="1.09" vaporized=""/>
    <tripinfo id="21" depart="21.00" departLane="157150674#6_0" departPos="5.10" departSpeed="0.00" departDelay="0.00" arrival="197.00" arrivalLane="195232382_0" arrivalPos="12.16" arrivalSpeed="2.65" duration="176.00" routeLength="1447.17" waitingTime="0.00" waitingCount="0" stopTime="0.00" timeLoss="24.86" rerouteNo="0" devices="vehroute_21 tripinfo_21 fcd_21" vType="DEFAULT_VEHTYPE" speedFactor="1.01" vaporized=""/>
    <tripinfo id="91" depart="91.00" departLane="-191351776_0" departPos="5.10" departSpeed="0.00" departDelay="0.00" arrival="199.00" arrivalLane="177851182#2_0" arrivalPos="96.74" arrivalSpeed="7.59" duration="108.00" routeLength="851.81" waitingTime="0.00" waitingCount="0" stopTime="0.00" timeLoss="12.82" rerouteNo="0" devices="vehroute_91 tripinfo_91 fcd_91" vType="DEFAULT_VEHTYPE" speedFactor="1.02" vaporized=""/>
    <tripinfo id="16" depart="16.00" departLane="22328914#0_0" departPos="0.34" departSpeed="0.00" departDelay="0.00" arrival="201.00" arrivalLane="-345311195#0_0" arrivalPos="32.03" arrivalSpeed="11.77" duration="185.00" routeLength="1687.50" waitingTime="0.00" waitingCount="0" stopTime="0.00" timeLoss="26.04" rerouteNo="0" devices="vehroute_16 tripinfo_16 fcd_16" vType="DEFAULT_VEHTYPE" speedFactor="0.88" vaporized=""/>
    <tripinfo id="75" depart="78.00" departLane="264221488_0" departPos="5.10" departSpeed="0.00" departDelay="3.00" arrival="207.00" arrivalLane="-157150660#15_0" arrivalPos="11.46" arrivalSpeed="6.80" duration="129.00" routeLength="1319.32" waitingTime="11.00" waitingCount="2" stopTime="0.00" timeLoss="38.24" rerouteNo="0" devices="vehroute_75 tripinfo_75 fcd_75" vType="DEFAULT_VEHTYPE" speedFactor="0.96" vaporized=""/>
    <tripinfo id="41" depart="41.00" departLane="49201848#3_0" departPos="5.10" departSpeed="0.00" departDelay="0.00" arrival="208.00" arrivalLane="49201828_0" arrivalPos="192.93" arrivalSpeed="17.67" duration="167.00" routeLength="1832.99" waitingTime="0.00" waitingCount="0" stopTime="0.00" timeLoss="20.47" rerouteNo="0" devices="vehroute_41 tripinfo_41 fcd_41" vType="DEFAULT_VEHTYPE" speedFactor="0.96" vaporized=""/>
    <tripinfo id="156" depart="156.00" departLane="486816938#2_0" departPos="5.10" departSpeed="0.00" departDelay="0.00" arrival="213.00" arrivalLane="34338474#2_0" arrivalPos="89.11" arrivalSpeed="13.76" duration="57.00" routeLength="497.19" waitingTime="0.00" waitingCount="0" stopTime="0.00" timeLoss="9.22" rerouteNo="0" devices="vehroute_156 tripinfo_156 fcd_156" vType="DEFAULT_VEHTYPE" speedFactor="1.07" vaporized=""/>
    <tripinfo id="18" depart="18.00" departLane="-157150656#9_0" departPos="1.63" departSpeed="0.00" departDelay="0.00" arrival="216.00" arrivalLane="122401181_1" arrivalPos="3.09" arrivalSpeed="10.01" duration="198.00" routeLength="1637.54" waitingTime="5.00" waitingCount="1" stopTime="0.00" timeLoss="28.59" rerouteNo="0" devices="vehroute_18 tripinfo_18 fcd_18" vType="DEFAULT_VEHTYPE" speedFactor="0.94" vaporized=""/>
    <tripinfo id="42" depart="42.00" departLane="-132908615#0_0" departPos="5.10" departSpeed="0.00" departDelay="0.00" arrival="221.00" arrivalLane="10966620#2_0" arrivalPos="30.12" arrivalSpeed="5.16" duration="179.00" routeLength="1338.88" waitingTime="29.00" waitingCount="1" stopTime="0.00" timeLoss="52.51" rerouteNo="0" devices="vehroute_42 tripinfo_42 fcd_42" vType="DEFAULT_VEHTYPE" speedFactor="1.09" vaporized=""/>
    <tripinfo id="84" depart="84.00" departLane="157147523#0_0" departPos="5.10" departSpeed="0.00" departDelay="0.00" arrival="221.00" arrivalLane="-81113692#2_0" arrivalPos="2.74" arrivalSpeed="4.96" duration="137.00" routeLength="1336.79" waitingTime="0.00" waitingCount="0" stopTime="0.00" timeLoss="25.94" rerouteNo="0" devices="vehroute_84 tripinfo_84 fcd_84" vType="DEFAULT_VEHTYPE" speedFactor="0.97" vaporized=""/>
    <tripinfo id="6" depart="6.00" departLane="253353291_0" departPos="5.10" departSpeed="0.00" departDelay="0.00" arrival="226.00" arrivalLane="-157150660#12_0" arrivalPos="2.89" arrivalSpeed="7.96" duration="220.00" routeLength="3843.20" waitingTime="5.00" waitingCount="3" stopTime="0.00" timeLoss="45.78" rerouteNo="0" devices="vehroute_6 tripinfo_6 fcd_6" vType="DEFAULT_VEHTYPE" speedFactor="1.05" vaporized=""/>
    <tripinfo id="150" depart="150.00" departLane="-149102061#0_0" departPos="5.10" departSpeed="0.00" departDelay="0.00" arrival="230.00" arrivalLane="-149102061#10_0" arrivalPos="57.11" arrivalSpeed="12.26" duration="80.00" routeLength="798.12" waitingTime="0.00" waitingCount="0" stopTime="0.00" timeLoss="12.32" rerouteNo="0" devices="vehroute_150 tripinfo_150 fcd_150" vType="DEFAULT_VEHTYPE" speedFactor="0.89" vaporized=""/>
    <tripinfo id="12" depart="12.00" departLane="268268095#1_0" departPos="5.10" departSpeed="0.00" departDelay="0.00" arrival="234.00" arrivalLane="22323598#5_0" arrivalPos="14.35" arrivalSpeed="13.51" duration="222.00" routeLength="1786.73" waitingTime="3.00" waitingCount="1" stopTime="0.00" timeLoss="35.19" rerouteNo="0" devices="vehroute_12 tripinfo_12 fcd_12" vType="DEFAULT_VEHTYPE" speedFactor="1.05" vaporized=""/>
    <tripinfo id="46" depart="46.00" departLane="-441726026_0" departPos="0.20" departSpeed="0.00" departDelay="0.00" arrival="236.00" arrivalLane="-34340976#8_0" arrivalPos="4.48" arrivalSpeed="7.72" duration="190.00" routeLength="1579.42" waitingTime="0.00" waitingCount="0" stopTime="0.00" timeLoss="24.71" rerouteNo="0" devices="vehroute_46 tripinfo_46 fcd_46" vType="DEFAULT_VEHTYPE" speedFactor="1.00" vaporized=""/>
    <tripinfo id="137" depart="137.00" departLane="52381439#0_0" departPos="5.10" departSpeed="0.00" departDelay="0.00" arrival="236.00" arrivalLane="49201808#0_0" arrivalPos="3.24" arrivalSpeed="12.94" duration="99.00" routeLength="1297.37" waitingTime="0.00" waitingCount="0" stopTime="0.00" timeLoss="27.12" rerouteNo="0" devices="vehroute_137 tripinfo_137 fcd_137" vType="DEFAULT_VEHTYPE" speedFactor="1.23" vaporized=""/>
    <tripinfo id="37" depart="37.00" departLane="-22338211#4_0" departPos="5.10" departSpeed="0.00" departDelay="0.00" arrival="237.00" arrivalLane="412618715_0" arrivalPos="80.48" arrivalSpeed="21.68" duration="200.00" routeLength="2838.14" waitingTime="0.00" waitingCount="0" stopTime="0.00" timeLoss="38.70" rerouteNo="0" devices="vehroute_37 tripinfo_37 fcd_37" vType="DEFAULT_VEHTYPE" speedFactor="1.18" vaporized=""/>
    <tripinfo id="151" depart="151.00" departLane="-171610162#3_0" departPos="3.28" departSpeed="0.00" departDelay="0.00" arrival="238.00" arrivalLane="-8009313#2_0" arrivalPos="1.16" arrivalSpeed="2.76" duration="87.00" routeLength="730.83" waitingTime="0.00" waitingCount="0" stopTime="0.00" timeLoss="10.17" rerouteNo="0" devices="vehroute_151 tripinfo_151 fcd_151" vType="DEFAULT_VEHTYPE" speedFactor="1.00" vaporized=""/>
    <tripinfo id="174" depart="174.00" departLane="-10965170#1_0" departPos="5.10" departSpeed="0.00" departDelay="0.00" arrival="244.00" arrivalLane="-263060155#7_0" arrivalPos="22.24" arrivalSpeed="7.21" duration="70.00" routeLength="444.45" waitingTime="0.00" waitingCount="0" stopTime="0.00" timeLoss="11.62" rerouteNo="0" devices="vehroute_174 tripinfo_174 fcd_174" vType="DEFAULT_VEHTYPE" speedFactor="0.94" vaporized=""/>
    <tripinfo id="115" depart="115.00" departLane="345311199_0" departPos="5.10" departSpeed="0.00" departDelay="0.00" arrival="249.00" arrivalLane="22328200#2_0" arrivalPos="6.00" arrivalSpeed="5.01" duration="134.00" routeLength="1328.22" waitingTime="0.00" waitingCount="0" stopTime="0.00" timeLoss="31.23" rerouteNo="0" devices="vehroute_115 tripinfo_115 fcd_115" vType="DEFAULT_VEHTYPE" speedFactor="1.10" vaporized=""/>
    <tripinfo id="103" depart="103.00" departLane="264221489_0" departPos="5.10" departSpeed="0.00" departDelay="0.00" arrival="252.00" arrivalLane="-22338219_0" arrivalPos="42.80" arrivalSpeed="1.48" duration="149.00" routeLength="1142.00" waitingTime="0.00" waitingCount="0" stopTime="0.00" timeLoss="21.31" rerouteNo="0" devices="vehroute_103 tripinfo_103 fcd_103" vType="DEFAULT_VEHTYPE" speedFactor="0.96" vaporized=""/>
    <tripinfo id="133" depart="133.00" departLane="307570927#0_0" departPos="5.10" departSpeed="0.00" departDelay="0.00" arrival="252.00" arrivalLane="22327897#1_0" arrivalPos="16.28" arrivalSpeed="8.76" duration="119.00" routeLength="1049.05" waitingTime="0.00" waitingCount="0" stopTime="0.00" timeLoss="19.98" rerouteNo="0" devices="vehroute_133 tripinfo_133 fcd_133" vType="DEFAULT_VEHTYPE" speedFactor="1.03" vaporized=""/>
    <tripinfo id="28" depart="28.00" departLane="22337655_0" departPos="5.10" departSpeed="0.00" departDelay="0.00" arrival="254.00" arrivalLane="22323598#4_0" arrivalPos="37.45" arrivalSpeed="14.99" duration="226.00" routeLength="1982.19" waitingTime="0.00" waitingCount="0" stopTime="0.00" timeLoss="35.75" rerouteNo="0" devices="vehroute_28 tripinfo_28 fcd_28" vType="DEFAULT_VEHTYPE" speedFactor="1.13" vaporized=""/>
    <tripinfo id="77" depart="77.00" departLane="216226407#0_0" departPos="5.10" departSpeed="0.00" departDelay="0.00" arrival="255.00" arrivalLane="-326418281_0" arrivalPos="8.22" arrivalSpeed="22.43" duration="178.00" routeLength="2332.70" waitingTime="0.00" waitingCount="0" stopTime="0.00" timeLoss="24.41" rerouteNo="0" devices="vehroute_77 tripinfo_77 fcd_77" vType="DEFAULT_VEHTYPE" speedFactor="1.03" vaporized=""/>
    <tripinfo id="120" depart="120.00" departLane="-263060155#5_0" departPos="5.10" departSpeed="0.00" departDelay="0.00" arrival="255.00" arrivalLane="-10966038#6_0" arrivalPos="33.07" arrivalSpeed="7.81" duration="135.00" routeLength="942.23" waitingTime="1.00" waitingCount="1" stopTime="0.00" timeLoss="19.74" rerouteNo="0" devices="vehroute_120 tripinfo_120 fcd_120" vType="DEFAULT_VEHTYPE" speedFactor="1.00" vaporized=""/>
    <tripinfo id="185" depart="185.00" departLane="3994450#5_0" departPos="5.10" departSpeed="0.00" departDelay="0.00" arrival="256.00" arrivalLane="132908615#4_0" arrivalPos="4.20" arrivalSpeed="5.34" duration="71.00" routeLength="545.39" waitingTime="0.00" waitingCount="0" stopTime="0.00" timeLoss="9.88" rerouteNo="0" devices="vehroute_185 tripinfo_185 fcd_185" vType="DEFAULT_VEHTYPE" speedFactor="1.10" vaporized=""/>
    <tripinfo id="166" depart="170.00" departLane="177851183_0" departPos="5.10" departSpeed="0.00" departDelay="4.00" arrival="258.00" arrivalLane="183305757_0" arrivalPos="94.41" arrivalSpeed="13.27" duration="88.00" routeLength="674.43" waitingTime="0.00" waitingCount="0" stopTime="0.00" timeLoss="10.18" rerouteNo="0" devices="vehroute_166 tripinfo_166 fcd_166" vType="DEFAULT_VEHTYPE" speedFactor="0.99" vaporized=""/>
    <tripinfo id="148" depart="148.00" departLane="-22338211#2_0" departPos="5.10" departSpeed="0.00" departDelay="0.00" arrival="261.00" arrivalLane="-157147524#13_0" arrivalPos="7.25" arrivalSpeed="5.42" duration="113.00" routeLength="636.43" waitingTime="0.00" waitingCount="0" stopTime="0.00" timeLoss="14.55" rerouteNo="0" devices="vehroute_148 tripinfo_148 fcd_148" vType="DEFAULT_VEHTYPE" speedFactor="0.73" vaporized=""/>
    <tripinfo id="173" depart="173.00" departLane="-345235519#2_0" departPos="5.10" departSpeed="0.00" departDelay="0.00" arrival="262.00" arrivalLane="22327902#1_0" arrivalPos="14.43" arrivalSpeed="7.24" duration="89.00" routeLength="852.26" waitingTime="0.00" waitingCount="0" stopTime="0.00" timeLoss="11.98" rerouteNo="0" devices="vehroute_173 tripinfo_173 fcd_173" vType="DEFAULT_VEHTYPE" speedFactor="0.98" vaporized=""/>
    <tripinfo id="198" depart="198.00" departLane="-2210065#2_0" departPos="5.10" departSpeed="0.00" departDelay="0.00" arrival="262.00" arrivalLane="177851183_0" arrivalPos="79.65" arrivalSpeed="8.68" duration="64.00" routeLength="550.51" waitingTime="0.00" waitingCount="0" stopTime="0.00" timeLoss="11.79" rerouteNo="0" devices="vehroute_198 tripinfo_198 fcd_198" vType="DEFAULT_VEHTYPE" speedFactor="1.10" vaporized=""/>
    <tripinfo id="10" depart="10.00" departLane="412618719#0_0" departPos="5.10" departSpeed="0.00" departDelay="0.00" arrival="266.00" arrivalLane="-52937834_0" arrivalPos="55.40" arrivalSpeed="5.25" duration="256.00" routeLength="3109.75" waitingTime="0.00" waitingCount="0" stopTime="0.00" timeLoss="32.06" rerouteNo="0" devices="vehroute_10 tripinfo_10 fcd_10" vType="DEFAULT_VEHTYPE" speedFactor="1.09" vaporized=""/>
    <tripinfo id="8" depart="8.00" departLane="58698092#0_0" departPos="2.95" departSpeed="0.00" departDelay="0.00" arrival="269.00" arrivalLane="10965170#6_0" arrivalPos="58.21" arrivalSpeed="7.75" duration="261.00" routeLength="2963.28" waitingTime="0.00" waitingCount="0" stopTime="0.00" timeLoss="27.78" rerouteNo="0" devices="vehroute_8 tripinfo_8 fcd_8" vType="DEFAULT_VEHTYPE" speedFactor="0.94" vaporized=""/>
    <tripinfo id="85" depart="85.00" departLane="22341882_0" departPos="5.10" departSpeed="0.00" departDelay="0.00" arrival="269.00" arrivalLane="22328010#1_0" arrivalPos="170.94" arrivalSpeed="8.60" duration="184.00" routeLength="2337.34" waitingTime="0.00" waitingCount="0" stopTime="0.00" timeLoss="24.38" rerouteNo="0" devices="vehroute_85 tripinfo_85 fcd_85" vType="DEFAULT_VEHTYPE" speedFactor="1.15" vaporized=""/>
    <tripinfo id="14" depart="14.00" departLane="8009283_0" departPos="5.10" departSpeed="0.00" departDelay="0.00" arrival="273.00" arrivalLane="-177851183_0" arrivalPos="76.85" arrivalSpeed="8.24" duration="259.00" routeLength="2598.30" waitingTime="13.00" waitingCount="2" stopTime="0.00" timeLoss="49.89" rerouteNo="0" devices="vehroute_14 tripinfo_14 fcd_14" vType="DEFAULT_VEHTYPE" speedFactor="0.99" vaporized=""/>
    <tripinfo id="123" depart="123.00" departLane="238896280#0_0" departPos="2.68" departSpeed="0.00" departDelay="0.00" arrival="273.00" arrivalLane="424788928_0" arrivalPos="15.79" arrivalSpeed="19.69" duration="150.00" routeLength="2303.69" waitingTime="0.00" waitingCount="0" stopTime="0.00" timeLoss="21.53" rerouteNo="0" devices="vehroute_123 tripinfo_123 fcd_123" vType="DEFAULT_VEHTYPE" speedFactor="0.94" vaporized=""/>
    <tripinfo id="134" depart="134.00" departLane="-132908614#6_0" departPos="5.10" departSpeed="0.00" departDelay="0.00" arrival="274.00" arrivalLane="-22328205#7_0" arrivalPos="25.59" arrivalSpeed="11.01" duration="140.00" routeLength="1244.72" waitingTime="0.00" waitingCount="0" stopTime="0.00" timeLoss="19.30" rerouteNo="0" devices="vehroute_134 tripinfo_134 fcd_134" vType="DEFAULT_VEHTYPE" speedFactor="1.07" vaporized=""/>
    <tripinfo id="226" depart="226.00" departLane="326418294_0" departPos="5.10" departSpeed="0.00" departDelay="0.00" arrival="276.00" arrivalLane="199222147_0" arrivalPos="5.08" arrivalSpeed="5.37" duration="50.00" routeLength="660.17" waitingTime="0.00" waitingCount="0" stopTime="0.00" timeLoss="19.42" rerouteNo="0" devices="vehroute_226 tripinfo_226 fcd_226" vType="DEFAULT_VEHTYPE" speedFactor="1.00" vaporized=""/>
    <tripinfo id="34" depart="34.00" departLane="-486816948#0_0" departPos="5.10" departSpeed="0.00" departDelay="0.00" arrival="283.00" arrivalLane="326418278_0" arrivalPos="1254.01" arrivalSpeed="38.23" duration="249.00" routeLength="4512.06" waitingTime="13.00" waitingCount="1" stopTime="0.00" timeLoss="52.66" rerouteNo="0" devices="vehroute_34 tripinfo_34 fcd_34" vType="DEFAULT_VEHTYPE" speedFactor="0.99" vaporized=""/>
    <tripinfo id="267" depart="267.00" departLane="157147523#3_0" departPos="5.10" departSpeed="0.00" departDelay="0.00" arrival="284.00" arrivalLane="-144959665_0" arrivalPos="5.93" arrivalSpeed="5.04" duration="17.00" routeLength="135.82" waitingTime="0.00" waitingCount="0" stopTime="0.00" timeLoss="6.35" rerouteNo="0" devices="vehroute_267 tripinfo_267 fcd_267" vType="DEFAULT_VEHTYPE" speedFactor="1.13" vaporized=""/>
    <tripinfo id="57" depart="57.00" departLane="37740515#0_0" departPos="5.10" departSpeed="0.00" departDelay="0.00" arrival="286.00" arrivalLane="157150656#4_0" arrivalPos="19.57" arrivalSpeed="8.93" duration="229.00" routeLength="3037.91" waitingTime="0.00" waitingCount="0" stopTime="0.00" timeLoss="43.19" rerouteNo="0" devices="vehroute_57 tripinfo_57 fcd_57" vType="DEFAULT_VEHTYPE" speedFactor="1.14" vaporized=""/>
    <tripinfo id="64" depart="64.00" departLane="191428860_0" departPos="5.10" departSpeed="0.00" departDelay="0.00" arrival="286.00" arrivalLane="326418275_0" arrivalPos="207.25" arrivalSpeed="36.33" duration="222.00" routeLength="3134.28" waitingTime="0.00" waitingCount="0" stopTime="0.00" timeLoss="33.15" rerouteNo="0" devices="vehroute_64 tripinfo_64 fcd_64" vType="DEFAULT_VEHTYPE" speedFactor="0.94" vaporized=""/>
    <tripinfo id="246" depart="249.00" departLane="-2210065#3_0" departPos="5.10" departSpeed="0.00" departDelay="3.00" arrival="286.00" arrivalLane="-3994460#2_0" arrivalPos="16.65" arrivalSpeed="8.69" duration="37.00" routeLength="258.74" waitingTime="0.00" waitingCount="0" stopTime="0.00" timeLoss="10.15" rerouteNo="0" devices="vehroute_246 tripinfo_246 fcd_246" vType="DEFAULT_VEHTYPE" speedFactor="0.95" vaporized=""/>
    <tripinfo id="63" depart="63.00" departLane="-22337656#9_0" departPos="0.58" departSpeed="0.00" departDelay="0.00" arrival="293.00" arrivalLane="10965170#0_0" arrivalPos="147.25" arrivalSpeed="7.02" duration="230.00" routeLength="1752.38" waitingTime="0.00" waitingCount="0" stopTime="0.00" timeLoss="26.35" rerouteNo="0" devices="vehroute_63 tripinfo_63 fcd_63" vType="DEFAULT_VEHTYPE" speedFactor="0.99" vaporized=""/>
    <tripinfo id="9" depart="9.00" departLane="22328914#1_0" departPos="5.10" departSpeed="0.00" departDelay="0.00" arrival="294.00" arrivalLane="22337656#9_0" arrivalPos="0.58" arrivalSpeed="3.98" duration="285.00" routeLength="1437.16" waitingTime="0.00" waitingCount="0" stopTime="0.00" timeLoss="43.39" rerouteNo="0" devices="vehroute_9 tripinfo_9 fcd_9" vType="DEFAULT_VEHTYPE" speedFactor="0.86" vaporized=""/>
    <tripinfo id="29" depart="29.00" departLane="253354846_0" departPos="5.10" departSpeed="0.00" departDelay="0.00" arrival="295.00" arrivalLane="34340973#3_0" arrivalPos="35.38" arrivalSpeed="6.66" duration="266.00" routeLength="2244.32" waitingTime="4.00" waitingCount="1" stopTime="0.00" timeLoss="41.31" rerouteNo="0" devices="vehroute_29 tripinfo_29 fcd_29" vType="DEFAULT_VEHTYPE" speedFactor="0.93" vaporized=""/>
    <tripinfo id="98" depart="98.00" departLane="-132908614#5_0" departPos="5.10" departSpeed="0.00" departDelay="0.00" arrival="295.00" arrivalLane="199222184#1_0" arrivalPos="5.64" arrivalSpeed="11.76" duration="197.00" routeLength="2598.37" waitingTime="2.00" waitingCount="1" stopTime="0.00" timeLoss="34.38" rerouteNo="0" devices="vehroute_98 tripinfo_98 fcd_98" vType="DEFAULT_VEHTYPE" speedFactor="1.01" vaporized=""/>
    <tripinfo id="0" depart="0.00" departLane="22328914#5_0" departPos="0.20" departSpeed="0.00" departDelay="0.00" arrival="296.00" arrivalLane="-22337656#9_0" arrivalPos="0.58" arrivalSpeed="4.88" duration="296.00" routeLength="1620.97" waitingTime="0.00" waitingCount="0" stopTime="0.00" timeLoss="82.62" rerouteNo="0" devices="vehroute_0 tripinfo_0 fcd_0" vType="DEFAULT_VEHTYPE" speedFactor="1.06" vaporized=""/>
    <tripinfo id="99" depart="99.00" departLane="345311195#3_0" departPos="5.10" departSpeed="0.00" departDelay="0.00" arrival="297.00" arrivalLane="22328914#2_0" arrivalPos="86.98" arrivalSpeed="11.34" duration="198.00" routeLength="1732.31" waitingTime="2.00" waitingCount="1" stopTime="0.00" timeLoss="39.03" rerouteNo="0" devices="vehroute_99 tripinfo_99 fcd_99" vType="DEFAULT_VEHTYPE" speedFactor="0.91" vaporized=""/>
    <tripinfo id="121" depart="121.00" departLane="22325218#0_0" departPos="0.20" departSpeed="0.00" departDelay="0.00" arrival="297.00" arrivalLane="-153431406#0_0" arrivalPos="91.30" arrivalSpeed="11.70" duration="176.00" routeLength="1443.21" waitingTime="0.00" waitingCount="0" stopTime="0.00" timeLoss="25.09" rerouteNo="0" devices="vehroute_121 tripinfo_121 fcd_121" vType="DEFAULT_VEHTYPE" speedFactor="0.99" vaporized=""/>